LAMMPS (17 Feb 2022)
OMP_NUM_THREADS environment is not set. Defaulting to 1 thread. (src/comm.cpp:98)
  using 1 OpenMP thread(s) per MPI task
Reading data file ...
  orthogonal box = (0 0 0) to (12.561698 12.0875 13.432)
  1 by 1 by 1 MPI processor grid
  reading atoms ...
  240 atoms
  read_data CPU = 0.001 seconds
Reading airebo potential file CH.airebo with DATE: 2011-10-25
 
-----------------------------------
  Begin Initial NVT equilibration
-----------------------------------
 
Thermalising at 300 K
Thermalisation time 0.1 ps
Equilibration timesteps required = 200 
 
-- Fixed box --
Box length x: 1.25616984818933 nm
Box length y: 1.20875 nm
Box length z: 1.3432 nm
Box volume  : 2.03950857233126 nm^3
Density     : 2.34700455799151 g/cm^3
 
Neighbor list info ...
  update every 10 steps, delay 0 steps, check no
  max neighbors/atom: 2000, page size: 100000
  master list distance cutoff = 12.2
  ghost atom cutoff = 12.2
  binsize = 6.1, bins = 3 2 3
  1 neighbor lists, perpetual/occasional/extra = 1 0 0
  (1) pair airebo, perpetual
      attributes: full, newton on, ghost
      pair build: full/bin/ghost
      stencil: full/ghost/bin/3d
      bin: standard
Setting up Verlet run ...
  Unit style    : metal
  Current step  : 0
  Time step     : 0.0005
Per MPI rank memory allocation (min/avg/max) = 4.866 | 4.866 | 4.866 Mbytes
Time TotEng Temp Press Pxx Pyy Pzz 
           0   -1775.9703          600    9747.3108    10756.406     8557.695    9927.8313 
        0.05   -1776.4331    266.57706    5822.4123    7223.8419     4323.083    5920.3119 
         0.1   -1776.5181    271.02304    7669.7482    9852.5755    8042.0647    5114.6043 
Loop time of 2.46282 on 1 procs for 200 steps with 240 atoms

Performance: 3.508 ns/day, 6.841 hours/ns, 81.208 timesteps/s
99.6% CPU use with 1 MPI tasks x 1 OpenMP threads

MPI task timing breakdown:
Section |  min time  |  avg time  |  max time  |%varavg| %total
---------------------------------------------------------------
Pair    | 1.4821     | 1.4821     | 1.4821     |   0.0 | 60.18
Neigh   | 0.97261    | 0.97261    | 0.97261    |   0.0 | 39.49
Comm    | 0.005351   | 0.005351   | 0.005351   |   0.0 |  0.22
Output  | 9.9e-05    | 9.9e-05    | 9.9e-05    |   0.0 |  0.00
Modify  | 0.001069   | 0.001069   | 0.001069   |   0.0 |  0.04
Other   |            | 0.001606   |            |       |  0.07

Nlocal:            240 ave         240 max         240 min
Histogram: 1 0 0 0 0 0 0 0 0 0
Nghost:           5695 ave        5695 max        5695 min
Histogram: 1 0 0 0 0 0 0 0 0 0
Neighs:              0 ave           0 max           0 min
Histogram: 1 0 0 0 0 0 0 0 0 0
FullNghs:       214896 ave      214896 max      214896 min
Histogram: 1 0 0 0 0 0 0 0 0 0

Total # of neighbors = 214896
Ave neighs/atom = 895.4
Neighbor list builds = 20
Dangerous builds not checked
 
 Initial relaxation complete. 
 
 
-----------------------------------------------
  Equilibrate in NVT - Outputting running averages to file
-----------------------------------------------
 
Setting up Verlet run ...
  Unit style    : metal
  Current step  : 0
  Time step     : 0.0005
Per MPI rank memory allocation (min/avg/max) = 6.506 | 6.506 | 6.506 Mbytes
Time TotEng Temp Press Pxx Pyy Pzz 
           0   -1776.5181    271.02304    7669.7482    9852.5755    8042.0647    5114.6043 
        0.05   -1776.2781    334.33511    7857.5603      9025.72    7904.4712    6642.4895 
         0.1   -1776.1313    312.98884    7041.5747    8809.0374    5302.7627     7012.924 
        0.15   -1775.9536    297.65562    7958.9906    12834.048    4769.7744     6273.149 
         0.2   -1776.1359    322.78653    7165.6478    8051.2525    8557.8351    4887.8558 
        0.25   -1777.0341    265.10782    6323.4889    5548.5992    6542.8316    6879.0358 
         0.3   -1777.1816    315.11718    6249.1723    7077.5485    5115.4652    6554.5031 
        0.35   -1776.2255    324.74841    3680.3055    10905.591   -2865.4077     3000.733 
         0.4   -1775.2384     308.5338    3736.1625   -1503.5435    5016.2418    7695.7891 
        0.45   -1775.3951    322.21445    10056.442    13926.036    11648.371    4594.9182 
         0.5   -1776.2996    284.56242    5309.8344    3540.8848    5723.7267    6664.8918 
        0.55   -1776.5515    301.35626    3529.9677    7063.5249   -1681.9036    5208.2819 
         0.6   -1776.4741    293.93321    7272.0723    11896.699    4429.3994     5490.119 
        0.65   -1776.4212    306.73925    6194.6637    8217.3434    4508.2315    5858.4163 
         0.7   -1776.1605    314.60451    5508.8296    2441.5367    6835.6686    7249.2836 
        0.75   -1775.6913     320.0687    9151.2042    15683.139    7375.4681    4395.0055 
         0.8   -1776.1266    311.73121    6960.5769    6254.4226    6631.2609    7996.0473 
        0.85   -1776.8757    285.63354    6349.9299    4252.7668    9265.6532    5531.3696 
         0.9   -1777.3171    280.50535    9095.2499    20873.057    486.10635    5926.5866 
        0.95   -1777.4869    250.02619    6980.2474     8860.146    5236.5265    6844.0698 
           1    -1776.278    326.30181    7209.7719    8757.7022     6928.832    5942.7815 
        1.05   -1775.7524    319.95181    7823.4662    11562.872    4087.7835    7819.7428 
         1.1    -1775.905    281.59515     5696.695    8460.5353    1966.2847    6663.2651 
        1.15   -1776.4546    289.78018    7618.3313    7196.2797    9103.2075    6555.5068 
         1.2   -1777.3852    299.04412    7749.5408    14581.404    2143.1512    6524.0675 
        1.25   -1777.4939     273.5947    5619.9968    5605.3615    3404.8767    7849.7523 
         1.3   -1776.1598    304.66039     8129.312    9223.2114    10101.902    5062.8223 
        1.35   -1776.0442    290.62952    6880.8645    7585.4953    4646.4907    8410.6074 
         1.4   -1776.0124    309.42249    7485.6822    13707.908    1842.1262     6907.012 
        1.45   -1776.2321    307.29893    7191.6387     6789.097    8270.7611    6515.0581 
         1.5   -1776.8226    298.56383    7652.5429    4581.5138     10416.47    7959.6444 
        1.55   -1777.2407    269.10235    6750.4958    6378.3424     7528.715      6344.43 
         1.6   -1776.5894    279.01252    7544.9072    14074.007    2343.2957    6217.4192 
        1.65   -1775.5399    297.00095    6825.1661    9801.1588    2181.2857    8493.0539 
         1.7   -1775.4704    304.49497    5978.4033    965.44981    10559.793    6409.9675 
        1.75   -1776.2294    287.37209    7009.4767    7079.1589    8416.8933     5532.378 
         1.8   -1776.8815     296.8337    5256.9603    10280.509   -2312.1642    7802.5365 
        1.85   -1776.6981    291.83857     6257.718    13318.628    135.19323    5319.3327 
         1.9   -1776.4178    286.52658    7589.6938    5651.6867    10197.743    6919.6514 
        1.95    -1775.949    314.39717    6801.6739    1789.6227    12781.071     5834.328 
           2   -1775.1587    318.90307     7774.405    17168.861    394.15045    5760.2038 
        2.05   -1774.7586    325.45062    9350.5185    20674.843    804.44875    6572.2635 
         2.1   -1776.0858    305.36706    5604.9928    384.53456    9781.9315    6648.5122 
        2.15   -1776.6816    277.01211    7891.7808    11624.996     7566.668    4483.6785 
         2.2   -1776.8426    287.12627    7797.5177    16669.128   -94.213951    6817.6391 
        2.25   -1776.3534    310.24154    6825.1501   -204.76436     14045.43    6634.7849 
         2.3   -1775.2641    309.37543    7787.2844    6788.1192    10361.303    6212.4311 
        2.35   -1775.2909    334.31567    7878.5915     20973.17   -5179.7283    7842.3327 
         2.4   -1776.0304    317.38824    7766.5493    11716.189    5013.0636    6570.3949 
        2.45   -1776.3423    286.14713    6421.9519   -2008.9163    15327.579    5947.1931 
         2.5   -1776.3568    301.63529     7573.577    10624.321    4484.4854     7611.925 
        2.55   -1776.2197    269.91529     8075.983    17756.448    417.37487    6054.1261 
         2.6   -1775.9114    296.09823    7673.8451    6201.0294    10428.419    6392.0867 
        2.65     -1775.62    307.56394    7322.8946    6790.4808    6843.7436    8334.4595 
         2.7   -1775.5584    304.72547    7773.6089    16791.745    -328.0718     6857.153 
        2.75   -1776.4423    296.04397    7481.0474    8706.0638    5957.3573    7779.7209 
         2.8    -1777.042    280.91598    7019.6908    3407.2546    10780.258    6871.5596 
        2.85   -1776.7785    283.84501    6445.5806    16143.346   -3185.1589    6378.5549 
         2.9   -1775.4563    315.82298    6551.4768    11008.709    851.03895    7794.6823 
        2.95   -1775.1889    303.49595    7033.0716    2101.2148    12152.181    6845.8189 
           3   -1775.8048    305.40886    6858.1899    7937.3457    5743.2337    6893.9902 
        3.05   -1776.4398     298.9252    6879.6042    15997.488    -3192.953    7834.2776 
         3.1   -1776.6629    274.15874    6647.4286    8175.1883    5064.6168    6702.4806 
        3.15   -1776.3512    301.62362    6262.9462    7421.1296    3838.8113    7528.8976 
         3.2   -1775.0518    316.31657    6278.6808    11451.706    774.84113    6609.4956 
        3.25   -1774.9752    303.98622    8887.7306    8628.5811    11111.045    6923.5654 
         3.3   -1776.0679    298.40758    5661.1613    5497.6409    4434.5358    7051.3072 
        3.35   -1776.5222    285.69656    5576.4746    9123.5646    1171.0123    6434.8469 
         3.4   -1776.4887    303.42267    7629.0024    12093.764    4089.9047    6703.3383 
        3.45   -1776.2127    289.19796    6896.1597    4987.5656    9091.4974    6609.4161 
         3.5   -1775.0554    327.10324    8234.0945    12480.586    4546.7018    7674.9955 
        3.55   -1774.9038    299.50824    6630.8784    9595.0627    4370.0705    5927.5021 
         3.6   -1775.8997    311.54577    7605.0444    9669.0645    6451.8544    6694.2141 
        3.65   -1776.3346    312.06031    7478.6591    5721.4691    9711.6058    7002.9024 
         3.7   -1776.4521    296.16457    7074.1522    8859.2874    5338.5992      7024.57 
        3.75   -1776.3416    297.00555    5984.8318    9607.1575    2388.8102    5958.5276 
         3.8   -1775.6758    331.75493    7697.6174    13729.041    2593.9827    6769.8284 
        3.85   -1774.9789    313.34838    8378.0177    9119.9646    9106.7141    6907.3745 
         3.9   -1775.4619    304.82748    7139.2359    3798.1616    10912.273    6707.2728 
        3.95   -1776.7278    299.55402    6000.6648    4060.7335    8349.8833    5591.3775 
           4   -1776.8425    293.60689    6822.7192    13275.323    773.66968    6419.1646 
        4.05   -1776.3274    310.01554     7508.651    8982.5017    6444.4489    7099.0024 
         4.1    -1775.645    314.32441    7781.9563    5788.2509    10464.608    7093.0098 
        4.15   -1775.4099    302.35495    7170.3314    15740.465   -1257.7529    7028.2819 
         4.2   -1776.2608    307.91223     6299.529    8988.6361    3149.9276    6760.0232 
        4.25   -1777.0759    301.38087    8307.3948    4095.9578    14316.985    6509.2413 
         4.3   -1777.1016    280.22765    5941.9956    8898.0528    1933.7327    6994.2013 
        4.35   -1776.0998    306.26827    7453.8613    14440.102    594.48126    7327.0002 
         4.4   -1775.6115    325.90422    8778.0048    2967.8566    16172.041    7194.1163 
        4.45   -1775.8754    316.25816    5712.5827    2997.9739    7195.4744    6944.2997 
         4.5   -1776.2859    308.23337    6723.4003    12146.266    1069.2706    6954.6641 
        4.55   -1777.2655    258.05746    4545.6256    5052.8776    3078.2322    5505.7668 
         4.6   -1778.1816    268.03045    6154.7323    2989.2245    8684.8119    6790.1604 
        4.65   -1777.5925     274.6695    6170.9159    7174.8664    5442.7674     5895.114 
         4.7   -1776.8423    312.72121    6347.4623    12066.651   -515.54025    7491.2761 
        4.75   -1776.1613    289.37285    5284.3533    4562.4532    5175.2323    6115.3745 
         4.8   -1775.7699    320.63485    7266.8779    3504.0972    11818.033    6478.5039 
        4.85   -1776.1955    297.71158     5692.339    6240.7865    3889.1033    6947.1273 
         4.9   -1777.4174    281.46393    5559.4584    10665.753    715.25166    5297.3706 
        4.95   -1777.5522    294.13121    6408.5704    3415.8263    10662.902    5146.9826 
           5   -1777.0227    289.58464    6126.4758    10120.968    1161.5828    7096.8765 
        5.05   -1776.4923    286.52881    7440.5971     13427.33    4156.2881    4738.1729 
         5.1   -1776.3107    323.68087    5781.8794    3382.5298    8702.0904    5261.0178 
        5.15   -1776.2934    287.58304    6888.0551    7609.4761    7158.1356    5896.5537 
         5.2   -1776.2669    288.96537    7582.1934    15990.842    1557.0968    5198.6413 
        5.25   -1776.5507    313.22036    7284.8418    9643.6736    6594.0799     5616.772 
         5.3   -1776.9287    288.97692    5832.2245    2504.6164    10013.249    4978.8085 
        5.35      -1776.8    291.52704    7950.6651    10659.693    8044.4184    5147.8842 
         5.4   -1776.0045     294.6005    8233.9141     15382.98    3372.4474    5946.3151 
        5.45   -1775.2967    299.09271    8041.4484      11407.6    6990.6757    5726.0695 
         5.5   -1775.6083    330.66066    9554.5726    9303.2663    13795.984    5564.4676 
        5.55   -1777.0988    267.87965     7479.098    6242.2243    10956.145    5238.9247 
         5.6   -1777.0212    284.87644     7251.349    12665.737    3793.0277    5295.2827 
        5.65   -1776.2831    310.49478    8630.7795    13700.421    6790.3391    5401.5783 
         5.7   -1775.7391    317.00601    8019.0287    7238.3174    9864.5467    6954.2221 
        5.75   -1775.6246    322.09228    6256.8633     1053.553    12395.538    5321.4985 
         5.8   -1776.8222    292.94245     6593.287    7449.5042    7168.2833    5162.0734 
        5.85   -1777.3952    276.54137    7394.8253    14585.516    1874.3491    5724.6113 
         5.9    -1776.815    308.15444    8377.2824    11570.027    7883.6472    5678.1726 
        5.95   -1776.0231    303.99901    6538.1601    7223.4105    7655.8796    4735.1901 
           6   -1775.8945    302.51155    6603.5692    2511.6758    11039.737    6259.2945 
        6.05   -1776.1092    304.86393    7020.4697    8602.9261    7031.8716    5426.6115 
         6.1   -1776.4253    306.64258    7161.8178     16508.53    42.222131    4934.7017 
        6.15   -1776.4631    286.00061    7989.3956    11851.556    5719.5486    6397.0818 
         6.2   -1776.4183    294.19135    6202.0063    2472.5186    11262.529    4870.9711 
        6.25   -1776.4055     301.3491    4247.8842    565.70736    6150.9054    6027.0399 
         6.3   -1776.0338    276.40233    7631.2164    18830.444   -1235.0771    5298.2825 
        6.35   -1775.3846     313.0457    7725.2397    19456.987   -1000.7832    4719.5147 
         6.4   -1775.4822    310.07086    6800.2488    784.83097    12460.596    7155.3195 
        6.45   -1776.6061     288.2058    7045.2584    327.16906     13593.68    7214.9265 
         6.5   -1777.0286    283.37902    6919.4249    8165.1746    8257.3046    4335.7954 
        6.55   -1776.8232    304.44197    6036.4149    12007.774    -555.6199    6657.0904 
         6.6   -1775.9795    313.05249    6827.4525      9610.58    4833.1134    6038.6641 
        6.65   -1775.5743    333.17739     7585.667    2435.7409     13927.22    6394.0396 
         6.7   -1775.7873     304.1017    6856.4182    3325.1837    11589.508    5654.5626 
        6.75   -1776.1548    316.36653    8432.6901    13901.957    5785.6121    5610.5014 
         6.8   -1776.8227    299.47453    6223.2621    11674.065    1419.6554    5576.0656 
        6.85   -1777.0619    287.81631     5978.763    3041.6972    9203.0268     5691.565 
         6.9   -1776.2969    296.16346    8420.8374     442.8633    19839.123    4980.5255 
        6.95   -1775.3283    322.62916    7699.0202    12643.576    4146.8824    6306.6023 
           7    -1775.598    318.79374    4250.9698    13924.735   -6823.7217    5651.8957 
        7.05   -1776.2885    320.77303    7732.6786    2406.3681    15562.982    5228.6856 
         7.1   -1776.7245    268.49227    6341.0532    4121.3107    9879.7944    5022.0544 
        7.15   -1776.5367    298.86131    6899.6402    15801.085    -451.6711    5349.5068 
         7.2   -1776.2205    325.47053    8667.2301    13685.415    7054.3089     5261.967 
        7.25   -1776.1199     291.1521    7061.3529    1013.6788    14388.871    5781.5088 
         7.3   -1775.9725    288.03198    8165.1668    11305.702    8009.1533    5180.6454 
        7.35   -1776.2487    296.71408     7053.413    12952.638     3601.157    4606.4441 
         7.4   -1776.9228    275.74963    7017.3793    9560.3294    6228.0671    5263.7415 
        7.45   -1777.2147    285.11557    5858.4951    5563.3427    6771.9109    5240.2317 
         7.5   -1776.4555    312.05846    6687.4484    7353.2024    8014.9082    4694.2344 
        7.55   -1775.3882    317.87636    7514.9848    7734.3706     7560.582    7250.0017 
         7.6   -1775.4455    320.46332    8159.1615    14555.404    4742.5785    5179.5022 
        7.65   -1776.1781    338.80052    7568.7933    11575.618    3381.0444    7749.7178 
         7.7   -1776.4629    296.10616    5883.5547    3836.3967    8874.8302    4939.4371 
        7.75   -1776.4491     302.0525    7629.5855    2189.4466     14974.47      5724.84 
         7.8   -1776.3997    300.55971    6469.4119    7516.9574    5677.4701    6213.8082 
        7.85   -1775.8121    308.01719    6965.0656    19472.722   -5142.4653      6564.94 
         7.9    -1775.007    337.36219    7111.5266    6187.1826    8334.4668    6812.9304 
        7.95   -1775.5317     317.7983    7257.3753   -175.62021    15359.144    6588.6021 
           8   -1776.5649    276.04188    7460.1418      12037.8    3212.6613     7129.964 
        8.05   -1776.6797    312.83921    8040.4356    15913.409    1294.0173    6913.8803 
         8.1   -1776.5068    294.04258    6556.6336    6330.6942    6131.4273    7207.7793 
        8.15   -1775.5736    302.20813    8049.4636    746.15213    16273.052    7129.1867 
         8.2   -1774.7476    317.25837    8092.4536    7429.5173    9356.6816    7491.1619 
        8.25   -1775.8465     294.1531      6785.17    10897.964    2883.6225    6573.9237 
         8.3    -1776.807    302.29387    8033.5973    7386.1493    9218.0927    7496.5498 
        8.35   -1776.6925    297.23785    6618.1044    5173.9848    9208.5986    5471.7297 
         8.4   -1776.1414    303.34968    7571.8826    6329.9892    8359.1064    8026.5523 
        8.45   -1775.4478    340.94734    8471.8019    13433.236    4498.1405    7484.0292 
         8.5   -1775.6838    308.83204    7143.0687    5594.7978    8939.9434    6894.4648 
        8.55   -1776.8862    298.23602    6517.2645    6752.3312    5509.7823      7289.68 
         8.6   -1777.1093    291.38906    7777.9654    6257.2342    10691.222    6385.4398 
        8.65   -1776.7568    295.12932    5719.3609    5695.8598    4644.6898    6817.5331 
         8.7   -1776.2085    290.33826    7322.8254    8657.9535    5683.3648    7627.1578 
        8.75   -1776.0188    306.53147    7842.9716    13298.998    4130.8624    6099.0547 
         8.8    -1776.192    287.25469    7519.0355    3482.9888    10913.029    8161.0893 
        8.85   -1776.2171    300.64985    6263.9204    502.76939    11494.462      6794.53 
         8.9   -1776.3221    300.80257    7651.0137     9274.779    7288.6692    6389.5929 
        8.95   -1776.3566    294.82559    6298.9909    8227.5875    2414.6368    8254.7483 
           9    -1776.266    317.99157    7318.8731    4581.5807    11101.962    6273.0767 
        9.05   -1776.4143     278.1068    7551.9929    1232.4852    14628.384    6795.1096 
         9.1   -1776.5377    301.64815    6597.2369    8494.8653    3339.4441    7957.4013 
        9.15   -1776.3351    317.29162    6263.4351    12631.345    82.174154    6076.7858 
         9.2   -1775.9761    301.51964    6993.9403    3561.1496    10815.607    6605.0642 
        9.25   -1775.7302    313.66769    7297.8967    7703.0094    6329.6012    7861.0796 
         9.3   -1775.8495    306.77445    7758.6514    4907.0943    13101.704    5267.1563 
        9.35   -1776.9464     282.8855    6541.9397    8017.2414    4694.1327     6914.445 
         9.4   -1777.1122    287.67602    5756.7401    8871.6537    2974.1475     5424.419 
        9.45   -1776.5825    308.65149    6829.7226    7250.7889    6978.2997    6260.0794 
         9.5   -1775.8363    286.51191    5974.2141   -2011.7952    13535.206    6399.2314 
        9.55   -1774.3895    315.82453    6968.5776    9880.3516     5837.677    5187.7042 
         9.6   -1774.1794    361.33647    7597.8911     10923.37    5139.1167    6731.1864 
        9.65   -1775.9958    317.00664    5416.6197    4218.9105    4463.2727     7567.676 
         9.7   -1776.5149    294.18806    6876.4858    5286.7695     9658.841     5683.847 
        9.75    -1777.035    278.65807    6266.8345    7846.0927    4958.3431    5996.0679 
         9.8   -1776.9616    295.43351    6050.5237    6935.9585    3629.4924    7586.1201 
        9.85   -1776.0812    319.27894    6743.0934    6264.4389     8508.727    5456.1144 
         9.9   -1775.6987    302.85962    6595.6976    5231.9737    7764.9937    6790.1253 
        9.95   -1775.9661    293.97652    7385.3116    7126.6888    7878.0399    7151.2062 
          10   -1777.3409    297.29678    7373.7653    9792.0909     6096.106    6233.0991 
Loop time of 270.585 on 1 procs for 20000 steps with 240 atoms

Performance: 3.193 ns/day, 7.516 hours/ns, 73.914 timesteps/s
99.8% CPU use with 1 MPI tasks x 1 OpenMP threads

MPI task timing breakdown:
Section |  min time  |  avg time  |  max time  |%varavg| %total
---------------------------------------------------------------
Pair    | 174.26     | 174.26     | 174.26     |   0.0 | 64.40
Neigh   | 95.038     | 95.038     | 95.038     |   0.0 | 35.12
Comm    | 0.52082    | 0.52082    | 0.52082    |   0.0 |  0.19
Output  | 0.31908    | 0.31908    | 0.31908    |   0.0 |  0.12
Modify  | 0.29128    | 0.29128    | 0.29128    |   0.0 |  0.11
Other   |            | 0.1583     |            |       |  0.06

Nlocal:            240 ave         240 max         240 min
Histogram: 1 0 0 0 0 0 0 0 0 0
Nghost:           5544 ave        5544 max        5544 min
Histogram: 1 0 0 0 0 0 0 0 0 0
Neighs:              0 ave           0 max           0 min
Histogram: 1 0 0 0 0 0 0 0 0 0
FullNghs:       215156 ave      215156 max      215156 min
Histogram: 1 0 0 0 0 0 0 0 0 0

Total # of neighbors = 215156
Ave neighs/atom = 896.48333
Neighbor list builds = 2000
Dangerous builds not checked
Total wall time: 0:04:33
