LAMMPS (17 Feb 2022)
OMP_NUM_THREADS environment is not set. Defaulting to 1 thread. (src/comm.cpp:98)
  using 1 OpenMP thread(s) per MPI task
Reading data file ...
  orthogonal box = (0 0 0) to (12.561698 12.0875 13.432)
  1 by 1 by 1 MPI processor grid
  reading atoms ...
  240 atoms
  read_data CPU = 0.001 seconds
Reading airebo potential file CH.airebo with DATE: 2011-10-25
 
-----------------------------------
  Begin Initial NVE equilibration
-----------------------------------
 
Velocities set to a temperature of 600 K
Equilibration time 0.1 ps
Equilibration timesteps required = 200 
 
-- Fixed box --
Box length x: 1.25616984818933 nm
Box length y: 1.20875 nm
Box length z: 1.3432 nm
Box volume  : 2.03950857233126 nm^3
Density     : 2.34700455799151 g/cm^3
 
Neighbor list info ...
  update every 10 steps, delay 0 steps, check no
  max neighbors/atom: 2000, page size: 100000
  master list distance cutoff = 12.2
  ghost atom cutoff = 12.2
  binsize = 6.1, bins = 3 2 3
  1 neighbor lists, perpetual/occasional/extra = 1 0 0
  (1) pair airebo, perpetual
      attributes: full, newton on, ghost
      pair build: full/bin/ghost
      stencil: full/ghost/bin/3d
      bin: standard
Setting up Verlet run ...
  Unit style    : metal
  Current step  : 0
  Time step     : 0.0005
Per MPI rank memory allocation (min/avg/max) = 4.866 | 4.866 | 4.866 Mbytes
Time TotEng Temp Press Pxx Pyy Pzz 
           0   -1775.9703          600    9747.3108    10756.406     8557.695    9927.8313 
        0.05    -1775.942    274.20521    5913.4326    7278.4769    4328.7758     6133.045 
         0.1   -1775.9401    279.75401    7828.9912    10065.742    8121.4534    5299.7787 
Loop time of 2.52646 on 1 procs for 200 steps with 240 atoms

Performance: 3.420 ns/day, 7.018 hours/ns, 79.162 timesteps/s
100.2% CPU use with 1 MPI tasks x 1 OpenMP threads

MPI task timing breakdown:
Section |  min time  |  avg time  |  max time  |%varavg| %total
---------------------------------------------------------------
Pair    | 1.522      | 1.522      | 1.522      |   0.0 | 60.24
Neigh   | 0.9964     | 0.9964     | 0.9964     |   0.0 | 39.44
Comm    | 0.005593   | 0.005593   | 0.005593   |   0.0 |  0.22
Output  | 0.00011    | 0.00011    | 0.00011    |   0.0 |  0.00
Modify  | 0.000643   | 0.000643   | 0.000643   |   0.0 |  0.03
Other   |            | 0.001736   |            |       |  0.07

Nlocal:            240 ave         240 max         240 min
Histogram: 1 0 0 0 0 0 0 0 0 0
Nghost:           5695 ave        5695 max        5695 min
Histogram: 1 0 0 0 0 0 0 0 0 0
Neighs:              0 ave           0 max           0 min
Histogram: 1 0 0 0 0 0 0 0 0 0
FullNghs:       214902 ave      214902 max      214902 min
Histogram: 1 0 0 0 0 0 0 0 0 0

Total # of neighbors = 214902
Ave neighs/atom = 895.425
Neighbor list builds = 20
Dangerous builds not checked
 
 Initial relaxation complete. 
 
 
-----------------------------------------------
  Equilibrate in NVE - Outputting running averages to file
-----------------------------------------------
 
Setting up Verlet run ...
  Unit style    : metal
  Current step  : 0
  Time step     : 0.0005
Per MPI rank memory allocation (min/avg/max) = 6.506 | 6.506 | 6.506 Mbytes
Time TotEng Temp Press Pxx Pyy Pzz 
           0   -1775.9401    279.75401    7828.9912    10065.742    8121.4534    5299.7787 
        0.05   -1775.9482    339.35843    8006.7146    9080.7495    8192.0377    6747.3565 
         0.1   -1775.9466    316.77133    7058.0624    8877.0953    5163.3685    7133.7236 
        0.15   -1775.9459    298.43239     7915.804    12795.324    4591.5569    6360.5315 
         0.2   -1775.9463    326.99187    7234.4184    8168.7196    8589.2913    4945.2444 
        0.25   -1775.9392    280.48244    6719.5682    5766.7641    7133.0478    7258.8928 
         0.3   -1775.9504     339.9818    6681.9533    7528.6504    5395.5359    7121.6734 
        0.35   -1775.9509    329.61843    3749.4795    10966.229   -2771.5883    3053.7979 
         0.4   -1775.9458    296.24387    3558.3264   -906.18056    4352.3387    7228.8211 
        0.45    -1775.943    311.58718     9867.346    13534.877    11568.616     4498.545 
         0.5   -1775.9462     289.1747    5383.8176     3499.407    5844.9726    6807.0733 
        0.55   -1775.9474    311.82483    3631.5023    7381.0115   -1895.9768    5409.4721 
         0.6    -1775.948    303.37958     7356.494    12115.322    4357.2419     5596.918 
        0.65   -1775.9471    314.55923    6380.3879    8776.5952    4308.1759    6056.3926 
         0.7   -1775.9473    318.47504    5499.6973    2039.8816    7087.5659    7371.6444 
        0.75    -1775.947    317.88964    9023.0481    15750.335    6957.4415    4361.3682 
         0.8   -1775.9477    315.08328     7169.517     6496.324    6844.3351     8167.892 
        0.85   -1775.9459    302.98625    6618.0312     4354.691    9713.0834    5786.3193 
         0.9   -1775.9423     301.6763    9877.7359    22198.511    1077.0768    6357.6196 
        0.95   -1775.9419     275.1587     7705.826    10017.642    5595.0361    7504.7999 
           1   -1775.9498    332.04536    7316.2441    8730.1109     7111.363    6107.2584 
        1.05   -1775.9479    314.59064    7897.8104    11369.613    4577.4195    7746.3985 
         1.1   -1775.9424    281.41314    5940.4777    7674.9242    3312.8378    6833.6711 
        1.15   -1775.9463    294.39977     8024.692    7481.2396    9789.0427    6803.7937 
         1.2   -1775.9476    323.16914    8467.4598     16584.15    1913.5404    6904.6887 
        1.25   -1775.9474    299.41631    6049.4578    5514.8354    4068.9908    8564.5471 
         1.3   -1775.9457     308.6965    8249.4848    9481.6158    10092.535    5174.3032 
        1.35   -1775.9442    295.20283    6973.4635    6182.1245    6321.9256    8416.3405 
         1.4   -1775.9445    313.98549    7269.8448    12786.364    1956.3987    7066.7721 
        1.45    -1775.948    315.69211    7439.8513    8307.7909    7276.5907    6735.1722 
         1.5   -1775.9462    316.83553    7927.2044    5517.3194    10161.186    8103.1078 
        1.55   -1775.9431    286.29063    7259.5714    4397.4052    10507.572    6873.7374 
         1.6   -1775.9443    286.28267     7696.736     13249.62    3695.6391    6144.9492 
        1.65   -1775.9444    288.00926    6746.0221    12239.746   -94.157226    8092.4773 
         1.7   -1775.9452     296.5445     5777.167    2913.4595    8145.4376     6272.604 
        1.75   -1775.9452    297.57718    6944.0652    4156.5139    11335.992    5339.6896 
         1.8   -1775.9481    311.52011     5381.256    8861.4986   -701.63479    7983.9043 
        1.85   -1775.9463    302.65898    6676.3182    16494.879   -1972.1955     5506.271 
         1.9   -1775.9447    298.03417     7580.833    8138.7815     7733.605    6870.1126 
        1.95   -1775.9476    319.03904    6811.9052   -1144.7407    15642.502     5937.954 
           2   -1775.9446    301.16294    7653.1746    15734.362    1636.7297    5588.4322 
        2.05   -1775.9445    302.27274     9134.213    22492.544   -1136.0627    6046.1577 
         2.1   -1775.9458    301.95023    5987.0547    130.01507     10966.62    6864.5291 
        2.15   -1775.9452    298.76708     7901.829    11157.696    7498.2597    5049.5318 
         2.2   -1775.9468    298.86071    8146.6077    17825.291    62.922325    6551.6097 
        2.25   -1775.9458    318.10324    6824.3191   -379.60624    13881.127    6971.4364 
         2.3    -1775.945    298.88332    7461.4693    4208.2131    12192.121    5984.0737 
        2.35   -1775.9471    326.21496    7734.5684    19362.467   -3639.2137    7480.4522 
         2.4    -1775.947    322.06566    7301.0021     12842.45    2712.9704    6347.5859 
        2.45   -1775.9462    290.83632    6675.0366   -597.93243    14987.078    5635.9638 
         2.5   -1775.9445    299.79114    8179.3032    7123.3426    10298.855    7115.7125 
        2.55    -1775.941    269.49302    8124.2323    16225.339    2102.5997    6044.7583 
         2.6   -1775.9455    297.72371    7356.5645    9257.8963    7470.0552    5341.7419 
        2.65   -1775.9455    300.24842    7114.3367    5553.4587    8346.9098    7442.6416 
         2.7   -1775.9454    304.26089    7338.4165    14519.112    1389.5923    6106.5447 
        2.75   -1775.9455    302.98456    7753.2907     10280.13    6409.3221      6570.42 
         2.8   -1775.9449    287.27202    7185.2355    7997.8934    7875.6019    5682.2111 
        2.85   -1775.9459    300.10362    6433.4065    12983.398    652.04817    5664.7734 
         2.9   -1775.9491    328.03557    6405.2582    8757.4803    4415.7516    6042.5428 
        2.95   -1775.9451    285.14135    6411.2785     5153.252    8672.1333    5408.4501 
           3   -1775.9445    299.20246    6724.7984    7686.4207    7272.3048    5215.6698 
        3.05   -1775.9472    327.60747     7644.209    14862.649    1232.0316    6837.9461 
         3.1   -1775.9457    284.07931    6835.4308    9819.3576    5080.6376    5606.2971 
        3.15   -1775.9476    319.47238    6255.2324    8046.5847    4988.5155     5730.597 
         3.2   -1775.9458    307.24054    7001.6727    10873.207    4098.5613    6033.2502 
        3.25   -1775.9451    296.16811    8690.4954    9954.0444    10376.073    5741.3687 
         3.3   -1775.9454    304.62068    5210.5687    5554.1997    4331.5263      5745.98 
        3.35   -1775.9452    293.50592    5334.8352     9659.038    1185.2182    5160.2493 
         3.4   -1775.9457    308.09722    7420.5636     11240.76    4661.0558    6359.8751 
        3.45   -1775.9429    304.18135     7868.017    4995.3307    12801.939    5806.7813 
         3.5   -1775.9443    296.00379    6562.0042    14730.314   -907.89979    5863.5981 
        3.55   -1775.9456    289.08214    5855.1195    9565.7832    3287.5003     4712.075 
         3.6   -1775.9455    315.27288    7607.7948    7311.4871    9195.5143     6316.383 
        3.65    -1775.947    319.87021    6594.2493    4894.3813    8598.2943    6290.0722 
         3.7   -1775.9452    308.00742    6637.0078    13863.049    487.56807    5560.4066 
        3.75   -1775.9473    310.00544    6947.1405    12863.691    2477.7921    5499.9383 
         3.8   -1775.9472    311.68467     7003.017    9773.5983    5027.1987    6208.2539 
        3.85   -1775.9432    302.90586     7934.701    3552.2484     14180.92    6070.9344 
         3.9   -1775.9451     302.4012    5919.3521    10456.804    1702.8246    5598.4278 
        3.95   -1775.9476    315.10354    6243.2416    12614.208    56.715266     6058.802 
           4   -1775.9452    313.47439    8006.9039    12098.926      5621.85    6299.9358 
        4.05   -1775.9457    309.93491    7434.9001    5395.8666     9856.142    7052.6918 
         4.1   -1775.9459    308.22312    7707.6077    8178.7629    8518.1638    6425.8964 
        4.15   -1775.9447    295.46063    7601.7043    15271.596    692.50466    6841.0124 
         4.2   -1775.9463     307.7824    7359.4268    12937.467    1892.4451    7248.3685 
        4.25   -1775.9452    302.65739    7483.5976    5596.9628    9949.4122    6904.4179 
         4.3   -1775.9451    297.56957    7132.6896    8785.9233    6045.9805    6566.1652 
        4.35   -1775.9456     298.5487    6963.2458    10698.465    3065.9377    7125.3348 
         4.4   -1775.9458    311.18636    8834.8855    9123.2272    10923.228    6458.2015 
        4.45    -1775.946    299.55199    6663.2875    7597.9286    5739.2494    6652.6846 
         4.5   -1775.9434    287.75259    7091.6568    13171.254    1614.3689    6489.3473 
        4.55   -1775.9429    273.63763      6860.76    9257.2515     6491.249    4833.7794 
         4.6   -1775.9459    298.67779    6696.5361    6081.0127    6917.3404    7091.2552 
        4.65   -1775.9456    305.76801    5625.5017    11088.462    225.91855    5562.1247 
         4.7   -1775.9455    303.76905    7740.3178    11449.291    5571.7314    6199.9313 
        4.75    -1775.948    303.88549    4760.4515    4029.0636    3906.0151    6346.2757 
         4.8   -1775.9462    306.13835    5921.1776    7676.2687     3996.144      6091.12 
        4.85   -1775.9455    308.18978    7205.7055    12466.056    3371.5116    5779.5489 
         4.9   -1775.9461    290.02566    6389.6241    8248.0106    4330.7799    6590.0818 
        4.95   -1775.9451    305.32904    7116.7617    13191.048    2660.6905    5498.5461 
           5   -1775.9441    287.56101    6622.8442    11357.193    2350.9759    6160.3638 
        5.05   -1775.9468    316.71345    7410.7413    6005.2344    9457.9605     6769.029 
         5.1   -1775.9475    316.74189    6333.7466    6289.9451    7524.1932    5187.1016 
        5.15   -1775.9448    295.21802     7298.294    17178.053   -824.46936    5541.2983 
         5.2   -1775.9456    301.70803    6890.9295    12903.902    2418.9556    5349.9305 
        5.25   -1775.9447    301.26091    7295.5982    1770.5874    15186.057    4930.1501 
         5.3   -1775.9474    310.65917    6354.1367    9880.3725    3454.5116    5727.5261 
        5.35   -1775.9455    303.82317    7522.9402    18314.134   -1566.1405    5820.8274 
         5.4   -1775.9454    312.98972    7955.4613    16413.823    2212.4584    5240.1025 
        5.45   -1775.9467     306.6618    5572.1598    989.22905    9803.9115    5923.3389 
         5.5   -1775.9446    302.80079    7145.5891    7798.8833    8101.2543    5536.6298 
        5.55   -1775.9462    304.36397    7152.6802    14783.853    1406.8126    5267.3756 
         5.6   -1775.9465    317.06798    7143.8856    5724.3419     9051.795    6655.5197 
        5.65   -1775.9454    290.00445    5505.0488    5824.1447    5256.8007    5434.2012 
         5.7   -1775.9457    298.18628    6862.6873    11801.856    3483.3222    5302.8838 
        5.75   -1775.9419    279.83902    7989.8786    10114.107    7294.1724    6561.3565 
         5.8   -1775.9449    286.95278    6275.3601    5366.5337    8040.4989    5419.0477 
        5.85   -1775.9463    303.05838    5861.8226    3736.0542    8094.1403    5755.2734 
         5.9   -1775.9462    304.79282    7126.2147    13135.464    1641.4806    6601.6998 
        5.95    -1775.947      316.272    7679.6513    9176.9397     7585.025    6276.9893 
           6   -1775.9458    301.81502    6661.7565    658.80601    12535.507    6790.9566 
        6.05   -1775.9465    307.96194    8618.5677    14379.995    5109.8933    6365.8143 
         6.1   -1775.9472    308.82371    8992.9705    13700.534    6279.7098    6998.6678 
        6.15   -1775.9463    299.80128    7703.3589    10294.827    6660.7312    6154.5185 
         6.2   -1775.9456    299.84371    8256.4477    8522.0917    9448.6623    6798.5891 
        6.25   -1775.9474    320.36113    9335.0108    13130.755      8624.67    6249.6076 
         6.3   -1775.9477    304.26593    8397.9302     11803.18    6160.1663    7230.4441 
        6.35   -1775.9437     294.4748    8850.7386    5912.2848    14868.091    5771.8396 
         6.4    -1775.946    298.97173    8881.2731    7397.7967    13954.095     5291.928 
        6.45   -1775.9455     311.1877    9020.1871    19785.092    916.71413    6358.7555 
         6.5   -1775.9495    335.52383     7208.189     10913.19    4905.4058    5805.9715 
        6.55   -1775.9441    282.95271    7239.0486   -660.56604    16855.339    5522.3729 
         6.6   -1775.9464       321.75    8955.6906    9538.8888    10565.047    6763.1363 
        6.65   -1775.9471    321.10794    8883.4613    18271.236    2496.4632    5882.6846 
         6.7   -1775.9472    312.22833    8637.3196    10637.239    9340.6154    5934.1039 
        6.75   -1775.9486    316.98622    7396.7478    5553.4754    9526.5834    7110.1845 
         6.8   -1775.9446    292.55333    8371.1742    16145.693    3962.0316    5005.7981 
        6.85   -1775.9465    304.11566     8029.108    10915.044    6920.2786    6252.0018 
         6.9   -1775.9484    324.72843    8326.6854    7367.9299    11405.701    6206.4253 
        6.95   -1775.9461    303.57542    8462.2722    14799.263    4296.3674    6291.1866 
           7   -1775.9466    298.68345     6467.882    8740.4074    3951.1514    6712.0873 
        7.05   -1775.9432    275.07262     8726.808    12780.982    7805.6946    5593.7476 
         7.1   -1775.9465    306.94445    8490.3943     11730.48    6774.1206    6966.5825 
        7.15    -1775.948    310.36666    7088.8906    9041.6479    5663.5707    6561.4533 
         7.2   -1775.9459    302.44662    7515.7273    4016.9784    12252.871    6277.3325 
        7.25   -1775.9495    316.20593    6794.1618    4569.3176    9596.3257     6216.842 
         7.3   -1775.9471    300.79666    7804.8297    18077.031   -1731.2305     7068.689 
        7.35   -1775.9485    322.53309    8332.1783    18937.815    502.69009    5556.0298 
         7.4   -1775.9463    310.46941    8256.7906    2561.6394    15340.956    6867.7761 
        7.45   -1775.9452    301.39177    8026.9038    3189.2237    13959.772    6931.7155 
         7.5   -1775.9457    305.34642     8027.741    20294.108   -2052.7522    5841.8676 
        7.55    -1775.945    305.12699    9188.8467    18579.752    2076.6729    6910.1155 
         7.6   -1775.9455    301.24907    7802.6351    66.170839    17566.897    5774.8371 
        7.65   -1775.9483    308.45915     6199.235    2205.1456    10848.296    5544.2632 
         7.7   -1775.9454    286.38704    6441.8724    13833.432   -13.611699    5505.7975 
        7.75   -1775.9469    308.06588    6248.9786    12560.973    383.92846    5802.0342 
         7.8   -1775.9481    307.20264    6791.5302    9949.1342    5148.1051    5277.3513 
        7.85   -1775.9484    309.11025    6666.4507    6056.5982    6927.2502    7015.5037 
         7.9    -1775.946    301.41183     7046.315    2131.2112    13475.913    5531.8204 
        7.95   -1775.9446    285.54041    7028.0027    17752.952   -2242.9094    5573.9654 
           8    -1775.947    302.47129    7844.9608    19181.873   -2887.5095    7240.5191 
        8.05   -1775.9467    304.79129    6082.8187   -2654.8563    15923.608    4979.7047 
         8.1   -1775.9465    307.47528    7086.5881   -2964.2453    17979.606    6244.4032 
        8.15   -1775.9453    299.56522    7053.0859    16728.154    -2398.383    6829.4868 
         8.2   -1775.9476    303.55924    6168.6134    16982.061   -3713.0882    5236.8674 
        8.25   -1775.9472    313.45399     8201.611    5625.3782    11751.843    7227.6113 
         8.3   -1775.9475    309.50062    6956.1379    5135.8745    8860.6168    6871.9224 
        8.35   -1775.9461    313.10258    7820.1771    12502.677    4938.3279    6019.5266 
         8.4   -1775.9466      320.391    8834.5952    4743.5478    13477.512    8282.7255 
        8.45   -1775.9459    306.64753    8494.5779    7007.8123    11695.836    6780.0859 
         8.5   -1775.9463    304.64148    7303.9091    14359.711    1437.4401    6114.5761 
        8.55   -1775.9458     317.0843    9474.6111    10169.378    10533.422    7721.0331 
         8.6   -1775.9468    313.41807    8595.1409    2594.8787    16374.058    6816.4855 
        8.65   -1775.9477    316.99471    7131.4826    13198.034    2277.4522     5918.962 
         8.7   -1775.9454    307.04349    8758.9298    16985.565     1626.083    7665.1409 
        8.75   -1775.9474    318.96828     9085.249    9262.1395    11180.923    6812.6847 
         8.8   -1775.9467    317.05735    7577.0399    1521.9182    14647.831    6561.3703 
        8.85   -1775.9464    316.44794    7931.9517    12758.808    3425.1295    7611.9171 
         8.9   -1775.9464    310.06791    7345.2666    12783.711    3209.8148     6042.274 
        8.95   -1775.9461    307.59052    6554.6874    3128.1472    9916.3614    6619.5537 
           9   -1775.9462     319.4235    7596.7366    8940.0664    6756.6365     7093.507 
        9.05   -1775.9478    312.85037    5595.5947    5102.7825    5770.9513    5913.0502 
         9.1   -1775.9483    315.32271    6544.7176    7501.3775    5241.9399    6890.8355 
        9.15   -1775.9446    299.89474    7120.8843    10569.788    3584.4996    7208.3657 
         9.2   -1775.9465    296.25453    6737.2149    10042.107    5025.3398    5144.1975 
        9.25   -1775.9465    298.23926    7703.0887    5517.1774    10009.203    7582.8853 
         9.3   -1775.9452    302.14405    8120.8051    3976.5954    13872.019    6513.8011 
        9.35   -1775.9441    272.94728    6824.3872     11412.78    3376.8038    5683.5779 
         9.4   -1775.9477    300.09965    7924.1099      18492.1   -2161.0018     7441.231 
        9.45   -1775.9463    303.64206    7647.8935    7503.7765    8689.1786    6750.7254 
         9.5   -1775.9451    286.32877    6397.1716    3032.5775    9792.2006    6366.7367 
        9.55   -1775.9479    305.31933    8363.2488      15734.3    2429.7862    6925.6606 
         9.6   -1775.9451    297.09564    8762.3284    15804.266    3821.0453    6661.6737 
        9.65   -1775.9451    297.13145    9038.9881    10238.194    10162.869    6715.9015 
         9.7   -1775.9486    309.11224    7486.2371     7950.313    7070.7232     7437.675 
        9.75   -1775.9478    318.36246    8422.0419    13804.194     5604.533    5857.3989 
         9.8   -1775.9464     308.6059    6890.2432    10111.585    4007.8916    6551.2531 
        9.85    -1775.948    320.38594    8314.9045    9899.7277    8549.5924    6495.3934 
         9.9   -1775.9457    286.20905    7765.0859    13802.168    3658.5138     5834.576 
        9.95   -1775.9442    301.13785    8777.0647    11423.543    8254.8244    6652.8269 
          10   -1775.9474    312.29396    7486.7734    7334.4639    9535.7631    5590.0932 
Loop time of 270.44 on 1 procs for 20000 steps with 240 atoms

Performance: 3.195 ns/day, 7.512 hours/ns, 73.954 timesteps/s
99.7% CPU use with 1 MPI tasks x 1 OpenMP threads

MPI task timing breakdown:
Section |  min time  |  avg time  |  max time  |%varavg| %total
---------------------------------------------------------------
Pair    | 174.02     | 174.02     | 174.02     |   0.0 | 64.35
Neigh   | 95.15      | 95.15      | 95.15      |   0.0 | 35.18
Comm    | 0.53061    | 0.53061    | 0.53061    |   0.0 |  0.20
Output  | 0.30722    | 0.30722    | 0.30722    |   0.0 |  0.11
Modify  | 0.26874    | 0.26874    | 0.26874    |   0.0 |  0.10
Other   |            | 0.1592     |            |       |  0.06

Nlocal:            240 ave         240 max         240 min
Histogram: 1 0 0 0 0 0 0 0 0 0
Nghost:           5685 ave        5685 max        5685 min
Histogram: 1 0 0 0 0 0 0 0 0 0
Neighs:              0 ave           0 max           0 min
Histogram: 1 0 0 0 0 0 0 0 0 0
FullNghs:       216032 ave      216032 max      216032 min
Histogram: 1 0 0 0 0 0 0 0 0 0

Total # of neighbors = 216032
Ave neighs/atom = 900.13333
Neighbor list builds = 2000
Dangerous builds not checked
Total wall time: 0:04:33
