LAMMPS (17 Feb 2022)
OMP_NUM_THREADS environment is not set. Defaulting to 1 thread. (src/comm.cpp:98)
  using 1 OpenMP thread(s) per MPI task
Reading data file ...
  orthogonal box = (0 0 0) to (12.561698 12.0875 13.432)
  1 by 1 by 1 MPI processor grid
  reading atoms ...
  240 atoms
  read_data CPU = 0.001 seconds
Reading airebo potential file CH.airebo with DATE: 2011-10-25
 
-----------------------------------
  Begin Initial NPT equilibration
-----------------------------------
 
Thermalising at 300 K
Thermalisation time 10 ps
Equilibration timesteps required = 20000 
 
Neighbor list info ...
  update every 10 steps, delay 0 steps, check no
  max neighbors/atom: 2000, page size: 100000
  master list distance cutoff = 12.2
  ghost atom cutoff = 12.2
  binsize = 6.1, bins = 3 2 3
  1 neighbor lists, perpetual/occasional/extra = 1 0 0
  (1) pair airebo, perpetual
      attributes: full, newton on, ghost
      pair build: full/bin/ghost
      stencil: full/ghost/bin/3d
      bin: standard
Setting up Verlet run ...
  Unit style    : metal
  Current step  : 0
  Time step     : 0.0005
Per MPI rank memory allocation (min/avg/max) = 4.866 | 4.866 | 4.866 Mbytes
Time TotEng Temp Press Lx Ly Lz Volume Density 
           0   -1775.9703          600    9747.3108    12.561698      12.0875       13.432    2039.5086    2.3470046 
         0.5    -1775.992    307.85675   -4446.9954    12.582842     12.08338    13.709649    2084.4598    2.2963916 
           1   -1776.5503    296.58059   -7128.9856     12.57204    12.113255    13.604175    2071.7571    2.3104715 
         1.5    -1776.891    295.89696   -9982.3489    12.591792    12.100074    13.650499    2079.8121    2.3015232 
           2   -1776.2997    314.69264    9950.3444    12.556365    12.078338    13.693332    2076.7311    2.3049378 
         2.5   -1776.4849    294.41319    13326.079    12.545521    12.073305    13.563392    2054.3912    2.3300021 
           3   -1775.7989    316.88952    784.67075    12.583134    12.075088    13.685873    2079.4651    2.3019073 
         3.5   -1774.9169    326.20608   -9205.7397    12.574469    12.116732    13.689845    2085.8049    2.2949106 
           4   -1775.9034    287.37631   -3394.9365    12.568556    12.098261    13.580508    2065.0204    2.3180091 
         4.5   -1777.0569    298.36115    7988.2817    12.575174    12.057528    13.745352    2084.1462    2.2967371 
           5   -1775.9871    315.86386    11339.186    12.531555    12.095057    13.613822    2063.4452    2.3197785 
         5.5   -1776.2489     302.3574   -4479.7598    12.580908    12.095435     13.61207    2071.3698    2.3109036 
           6   -1775.8911    282.37977   -20025.458    12.591792    12.118437    13.749207    2098.0304     2.281538 
         6.5   -1776.2034    312.76925   -1779.7866    12.573007    12.093971    13.544224    2059.5021      2.32422 
           7   -1775.8481    332.06778    7917.7188    12.550706    12.081803    13.671546    2073.0872    2.3089892 
         7.5    -1776.949    318.31693    1581.4554    12.582514    12.071146    13.630407    2070.2591    2.3121434 
           8   -1776.3248    295.60271   -10644.009     12.53915    12.143899    13.665876    2080.9599    2.3002538 
         8.5   -1774.7803    303.97942    -278.4509    12.587415    12.075853     13.67897    2079.2552    2.3021397 
           9   -1775.9824    302.56091    4043.7084    12.547261    12.099447    13.594493    2063.8468    2.3193272 
         9.5   -1775.7417    299.76918    5837.1268    12.599757    12.041541    13.817619    2096.4159     2.283295 
          10   -1776.9226    291.65067   -4623.4152    12.562046    12.105909    13.626823    2072.2989    2.3098675 
Loop time of 250.146 on 1 procs for 20000 steps with 240 atoms

Performance: 3.454 ns/day, 6.948 hours/ns, 79.953 timesteps/s
99.8% CPU use with 1 MPI tasks x 1 OpenMP threads

MPI task timing breakdown:
Section |  min time  |  avg time  |  max time  |%varavg| %total
---------------------------------------------------------------
Pair    | 153.71     | 153.71     | 153.71     |   0.0 | 61.45
Neigh   | 94.914     | 94.914     | 94.914     |   0.0 | 37.94
Comm    | 0.52215    | 0.52215    | 0.52215    |   0.0 |  0.21
Output  | 0.000977   | 0.000977   | 0.000977   |   0.0 |  0.00
Modify  | 0.85444    | 0.85444    | 0.85444    |   0.0 |  0.34
Other   |            | 0.1409     |            |       |  0.06

Nlocal:            240 ave         240 max         240 min
Histogram: 1 0 0 0 0 0 0 0 0 0
Nghost:           5622 ave        5622 max        5622 min
Histogram: 1 0 0 0 0 0 0 0 0 0
Neighs:              0 ave           0 max           0 min
Histogram: 1 0 0 0 0 0 0 0 0 0
FullNghs:       213478 ave      213478 max      213478 min
Histogram: 1 0 0 0 0 0 0 0 0 0

Total # of neighbors = 213478
Ave neighs/atom = 889.49167
Neighbor list builds = 2000
Dangerous builds not checked
 
 Initial relaxation complete. 
 
 
-----------------------------------------------
  Equilibrate in NPT - Outputting running averages to file
-----------------------------------------------
 
Setting up Verlet run ...
  Unit style    : metal
  Current step  : 0
  Time step     : 0.0005
Per MPI rank memory allocation (min/avg/max) = 6.506 | 6.506 | 6.506 Mbytes
Time TotEng Temp Press Lx Ly Lz Volume Density 
           0   -1776.9226    291.65067   -4623.4152    12.562046    12.105909    13.626823    2072.2989    2.3098675 
         0.5   -1776.0453    298.71116   -6227.2888    12.585994    12.092822    13.654022    2078.1449    2.3033697 
           1   -1774.8988    328.31127    6825.1451    12.543314    12.090783    13.713315    2079.7405    2.3016025 
         1.5   -1776.3747    284.38232    4325.8205    12.579525    12.070785     13.57736    2061.6507    2.3217977 
           2   -1776.5495    278.28384   -7665.6162    12.550437    12.119779    13.811744    2100.8841    2.2784388 
         2.5   -1775.8401    316.90096    -11450.15     12.59652    12.101582    13.570816    2068.7055    2.3138798 
           3   -1776.9592    285.87332    8625.4785    12.543751    12.086055    13.663126     2071.391      2.31088 
         3.5   -1775.8636    310.66801    12306.729    12.549374    12.078226    13.678795    2073.3522     2.308694 
           4    -1777.201    275.35881    4221.7769    12.575479    12.072006    13.545609    2056.3759    2.3277534 
         4.5   -1776.5984    305.13984   -15979.077    12.593025    12.113986     13.84146    2111.5386    2.2669421 
           5   -1776.1742    298.17891   -9568.0886    12.589809    12.101189    13.548229    2064.0952     2.319048 
         5.5   -1776.9183    277.71942   -1152.0746    12.575396     12.09275    13.648468    2075.5376    2.3062631 
           6   -1776.1302    300.90208    7399.4976    12.544341    12.092866    13.678449    2074.9802    2.3068827 
         6.5   -1777.4917    267.04058   -960.75997    12.590466    12.076702    13.480085    2049.6644    2.3353754 
           7   -1775.7365    307.74082   -13061.546    12.570937    12.125311    13.807466     2104.624      2.27439 
         7.5   -1775.4377    316.17176   -1804.7116    12.596216    12.079473    13.583198    2066.7603    2.3160576 
           8    -1777.511    270.34518    8923.0139    12.534235    12.097267    13.648826    2069.5714    2.3129117 
         8.5   -1776.0191    301.88343    6852.0424    12.583711    12.062569    13.614316    2066.5426    2.3163016 
           9   -1776.3413    309.65346     -613.183    12.519717     12.14708    13.609404    2069.6909    2.3127782 
         9.5   -1776.2113    291.04576   -4265.3421    12.591875    12.084344    13.619109    2072.3456    2.3098154 
          10   -1775.9794    285.70803    -1602.979    12.561546    12.111416    13.602837      2069.51    2.3129803 
Loop time of 263.987 on 1 procs for 20000 steps with 240 atoms

Performance: 3.273 ns/day, 7.333 hours/ns, 75.761 timesteps/s
99.8% CPU use with 1 MPI tasks x 1 OpenMP threads

MPI task timing breakdown:
Section |  min time  |  avg time  |  max time  |%varavg| %total
---------------------------------------------------------------
Pair    | 168.07     | 168.07     | 168.07     |   0.0 | 63.67
Neigh   | 93.979     | 93.979     | 93.979     |   0.0 | 35.60
Comm    | 0.51247    | 0.51247    | 0.51247    |   0.0 |  0.19
Output  | 0.29964    | 0.29964    | 0.29964    |   0.0 |  0.11
Modify  | 0.98766    | 0.98766    | 0.98766    |   0.0 |  0.37
Other   |            | 0.1381     |            |       |  0.05

Nlocal:            240 ave         240 max         240 min
Histogram: 1 0 0 0 0 0 0 0 0 0
Nghost:           5670 ave        5670 max        5670 min
Histogram: 1 0 0 0 0 0 0 0 0 0
Neighs:              0 ave           0 max           0 min
Histogram: 1 0 0 0 0 0 0 0 0 0
FullNghs:       214258 ave      214258 max      214258 min
Histogram: 1 0 0 0 0 0 0 0 0 0

Total # of neighbors = 214258
Ave neighs/atom = 892.74167
Neighbor list builds = 2000
Dangerous builds not checked
Total wall time: 0:08:34
