LAMMPS (17 Feb 2022)
OMP_NUM_THREADS environment is not set. Defaulting to 1 thread. (src/comm.cpp:98)
  using 1 OpenMP thread(s) per MPI task
Reading data file ...
  orthogonal box = (0 0 0) to (12.561698 12.0875 13.432)
  1 by 1 by 1 MPI processor grid
  reading atoms ...
  240 atoms
  read_data CPU = 0.001 seconds
Reading airebo potential file CH.airebo with DATE: 2011-10-25
Displacing atoms ...
WARNING: Using 'neigh_modify every 1 delay 0 check yes' setting during minimization (src/min.cpp:187)
Neighbor list info ...
  update every 1 steps, delay 0 steps, check yes
  max neighbors/atom: 2000, page size: 100000
  master list distance cutoff = 12.2
  ghost atom cutoff = 12.2
  binsize = 6.1, bins = 3 2 3
  1 neighbor lists, perpetual/occasional/extra = 1 0 0
  (1) pair airebo, perpetual
      attributes: full, newton on, ghost
      pair build: full/bin/ghost
      stencil: full/ghost/bin/3d
      bin: standard
Setting up cg style minimization ...
  Unit style    : metal
  Current step  : 0
WARNING: Energy due to 3 extra global DOFs will be included in minimizer energies
Per MPI rank memory allocation (min/avg/max) = 8.096 | 8.096 | 8.096 Mbytes
Time Step KinEng PotEng TotEng Temp Press Lx Ly Lz Volume Density Fmax Fnorm 
           0        0            0    -1777.663    -1777.663            0    30142.895    12.561698      12.0875       13.432    2039.5086    2.3470046    8.1047659     62.94498 
        0.05      100            0    -1794.426    -1794.426            0   -1025.8055    12.564448    12.087403    13.421236    2038.3039    2.3483917   0.11729322   0.90473742 
         0.1      200            0   -1794.5011   -1794.5011            0   -69.606308    12.562234    12.087318    13.427543    2038.8881    2.3477188  0.020349568   0.12153696 
        0.15      300            0   -1794.5049   -1794.5049            0    64.370166    12.561962    12.087101    13.433631    2039.7319    2.3467476   0.01167918  0.063387767 
         0.2      400            0    -1794.506    -1794.506            0    80.248275    12.561724    12.087373    13.431303    2039.3856    2.3471461 0.0037197877  0.022758264 
        0.25      500            0   -1794.5061   -1794.5061            0    34.138133    12.561696    12.087498     13.43253    2039.5883    2.3469128 0.0023774478  0.011439862 
         0.3      600            0   -1794.5062   -1794.5062            0    13.029388    12.561688    12.087579    13.432065    2039.5302    2.3469797 0.0012855555 0.0092226623 
        0.35      700            0   -1794.5062   -1794.5062            0   -4.4730505    12.561709    12.087609    13.432095     2039.543    2.3469649 0.0011958002 0.0088134279 
         0.4      800            0   -1794.5062   -1794.5062            0   -7.6615055    12.561751    12.087579    13.432068    2039.5408    2.3469675 0.0011280176 0.0084107077 
        0.45      900            0   -1794.5062   -1794.5062            0   -1.1848497    12.561753     12.08756    13.432053    2039.5356    2.3469735 0.00075575581 0.0052086358 
         0.5     1000            0   -1794.5062   -1794.5062            0   0.56589376    12.561751    12.087557    13.432015    2039.5291    2.3469809 0.00032861733 0.0024994083 
        0.55     1100            0   -1794.5062   -1794.5062            0    1.3108807    12.561758     12.08755    13.431993    2039.5256     2.346985 0.00022217872 0.0018279987 
         0.6     1200            0   -1794.5062   -1794.5062            0   -2.1053492    12.561756    12.087561    13.431989    2039.5266    2.3469838 0.0003349152 0.0028685233 
        0.65     1300            0   -1794.5062   -1794.5062            0   -1.4765422    12.561751    12.087564    13.431993    2039.5268    2.3469836 0.00031840521 0.0027797022 
         0.7     1400            0   -1794.5062   -1794.5062            0    0.3716578    12.561751     12.08756     13.43194    2039.5181    2.3469935 0.00020614183 0.0017890675 
        0.75     1500            0   -1794.5062   -1794.5062            0  0.079090263    12.561756    12.087556    13.431967    2039.5224    2.3469887 0.00011408748 0.00076935175 
         0.8     1600            0   -1794.5062   -1794.5062            0   0.15055539    12.561754    12.087556    13.432006     2039.528    2.3469822 0.00029420322 0.0020158082 
        0.85     1700            0   -1794.5062   -1794.5062            0   0.35705331    12.561756    12.087553    13.432013     2039.529    2.3469811 0.00031766345 0.0021324116 
         0.9     1800            0   -1794.5062   -1794.5062            0  0.028890473    12.561756    12.087555    13.432009    2039.5285    2.3469816 8.6326384e-05 0.00055424866 
        0.95     1900            0   -1794.5062   -1794.5062            0   0.10336048    12.561756    12.087556    13.431976    2039.5236    2.3469872 4.554099e-05 0.00036524609 
           1     2000            0   -1794.5062   -1794.5062            0   0.25035913    12.561755    12.087556    13.431964    2039.5217    2.3469894 4.3697995e-05 0.00036076406 
        1.05     2100            0   -1794.5062   -1794.5062            0  0.034111564    12.561756    12.087555    13.431984    2039.5247     2.346986 5.3109581e-05 0.00030941919 
         1.1     2200            0   -1794.5062   -1794.5062            0   -0.9462403    12.561757    12.087557       13.432    2039.5276    2.3469827 3.7845766e-05 0.00027070162 
        1.15     2300            0   -1794.5062   -1794.5062            0  -0.78873641    12.561757    12.087556    13.431977    2039.5242    2.3469866 5.6403397e-05 0.00040852082 
         1.2     2400            0   -1794.5062   -1794.5062            0  0.048119639    12.561756    12.087556    13.431985     2039.525    2.3469856 0.00014048713 0.00092795633 
        1.25     2500            0   -1794.5062   -1794.5062            0   0.40509047    12.561758    12.087553    13.431967    2039.5222    2.3469889 0.00018496635 0.0012095149 
         1.3     2600            0   -1794.5062   -1794.5062            0   0.40909016    12.561755    12.087555    13.431987    2039.5251    2.3469856 7.2862416e-05 0.00062176923 
        1.35     2700            0   -1794.5062   -1794.5062            0  -0.56363015    12.561758    12.087555    13.431988    2039.5256    2.3469849 0.00012107242 0.00075919495 
         1.4     2800            0   -1794.5062   -1794.5062            0 -0.079519547    12.561758    12.087554    13.431988    2039.5254    2.3469852 7.8822084e-05 0.00061297113 
        1.45     2900            0   -1794.5062   -1794.5062            0  0.054919663    12.561756    12.087556    13.431982    2039.5245    2.3469862    1.227e-05 0.00011205784 
         1.5     3000            0   -1794.5062   -1794.5062            0  0.039443877    12.561756    12.087555    13.431984    2039.5247     2.346986 1.7590253e-05 0.0001321511 
        1.55     3100            0   -1794.5062   -1794.5062            0   0.38920059    12.561755    12.087555    13.431986    2039.5249    2.3469858 2.270923e-05 0.00018183779 
         1.6     3200            0   -1794.5062   -1794.5062            0  0.050805157    12.561756    12.087555    13.431985    2039.5249    2.3469857 1.6517053e-05 0.0001232051 
        1.65     3300            0   -1794.5062   -1794.5062            0  0.008465094    12.561756    12.087555    13.431994    2039.5263    2.3469842 8.2895986e-06 6.2398417e-05 
         1.7     3400            0   -1794.5062   -1794.5062            0   -0.2384667    12.561755    12.087557    13.431986    2039.5253    2.3469854 2.4721593e-05 0.00017013939 
        1.75     3500            0   -1794.5062   -1794.5062            0  0.099360754    12.561756    12.087555    13.431996    2039.5265    2.3469839 2.1685307e-05 0.0001525258 
         1.8     3600            0   -1794.5062   -1794.5062            0  0.036238555    12.561756    12.087555    13.431985     2039.525    2.3469856 8.8660481e-06 6.571889e-05 
        1.85     3700            0   -1794.5062   -1794.5062            0   0.28579164    12.561755    12.087555    13.431991    2039.5257    2.3469848 2.0707624e-05 0.00018424206 
         1.9     3800            0   -1794.5062   -1794.5062            0   0.13768526    12.561756    12.087555    13.431991    2039.5258    2.3469848 2.1587863e-05 0.00020940353 
        1.95     3900            0   -1794.5062   -1794.5062            0 -0.00046619016    12.561756    12.087555    13.431989    2039.5256    2.3469849 2.0850584e-06 1.4621809e-05 
           2     4000            0   -1794.5062   -1794.5062            0  0.017362684    12.561756    12.087555    13.431989    2039.5256     2.346985 3.4242551e-06 2.1897006e-05 
        2.05     4100            0   -1794.5062   -1794.5062            0  0.032691386    12.561756    12.087555    13.431989    2039.5256     2.346985 4.268771e-06 2.956497e-05 
         2.1     4200            0   -1794.5062   -1794.5062            0 -0.00052133255    12.561756    12.087555    13.431989    2039.5256     2.346985 1.333478e-06 9.4039233e-06 
        2.15     4300            0   -1794.5062   -1794.5062            0 0.0045008272    12.561756    12.087555    13.431989    2039.5256     2.346985 2.2404337e-07 2.0595884e-06 
         2.2     4400            0   -1794.5062   -1794.5062            0 0.00027643759    12.561756    12.087555    13.431989    2039.5256     2.346985 6.3066284e-07 4.8113321e-06 
        2.25     4500            0   -1794.5062   -1794.5062            0 0.00065618991    12.561756    12.087555    13.431989    2039.5256     2.346985 6.1158155e-07 4.6502783e-06 
       2.297     4594            0   -1794.5062   -1794.5062            0 -1.3889654e-05    12.561756    12.087555    13.431989    2039.5256     2.346985 1.4115877e-07 9.2065849e-07 
Loop time of 75.3562 on 1 procs for 4594 steps with 240 atoms

99.6% CPU use with 1 MPI tasks x 1 OpenMP threads

Minimization stats:
  Stopping criterion = force tolerance
  Energy initial, next-to-last, final = 
     -1777.66300244714  -1794.50621270711  -1794.50621270709
  Force two-norm initial, final = 103.52883 9.6577748e-07
  Force max component initial, final = 62.863398 2.0911391e-07
  Final line search alpha, max atom move = 1 2.0911391e-07
  Iterations, force evaluations = 4594 9095

MPI task timing breakdown:
Section |  min time  |  avg time  |  max time  |%varavg| %total
---------------------------------------------------------------
Pair    | 74.38      | 74.38      | 74.38      |   0.0 | 98.70
Neigh   | 0          | 0          | 0          |   0.0 |  0.00
Comm    | 0.18768    | 0.18768    | 0.18768    |   0.0 |  0.25
Output  | 0.062995   | 0.062995   | 0.062995   |   0.0 |  0.08
Modify  | 0          | 0          | 0          |   0.0 |  0.00
Other   |            | 0.7253     |            |       |  0.96

Nlocal:            240 ave         240 max         240 min
Histogram: 1 0 0 0 0 0 0 0 0 0
Nghost:           5722 ave        5722 max        5722 min
Histogram: 1 0 0 0 0 0 0 0 0 0
Neighs:              0 ave           0 max           0 min
Histogram: 1 0 0 0 0 0 0 0 0 0
FullNghs:       214666 ave      214666 max      214666 min
Histogram: 1 0 0 0 0 0 0 0 0 0

Total # of neighbors = 214666
Ave neighs/atom = 894.44167
Neighbor list builds = 0
Dangerous builds not checked
Total wall time: 0:01:15
